 Gaussian 09, Revision A.01,
 Gaussian 09:  EM64L-G09RevA.01  8-May-2009

 ----------------------------------------------------------------------
 #P HF/6-31G* POP(MK) IOP(6/33=2) scf=direct Test geom=allcheck guess=r
 ead
 ----------------------------------------------------------------------

 Optimizacion de estructura de putrescina
 ----------------------------------------
 Redundant internal coordinates taken from checkpoint file:
 put_cargas.chk
 Charge =  2 Multiplicity = 1

                         Standard orientation:
 ---------------------------------------------------------------------
 Center     Atomic      Atomic             Coordinates (Angstroms)
 Number     Number       Type             X           Y           Z
 ---------------------------------------------------------------------
      1          7           0       -3.163117   -0.196222    0.000246
      2          7           0        3.163118    0.196219    0.000185
      3          6           0       -0.663294   -0.390915   -0.000017
      4          6           0        0.663294    0.390918    0.000126
      5          6           0       -1.857279    0.564189   -0.000362
      6          6           0        1.857277   -0.564189   -0.000276
      7          1           0       -0.708602   -1.032164    0.876325
      8          1           0       -0.708355   -1.032353   -0.876235
      9          1           0        0.708526    1.031972    0.876614
     10          1           0        0.708433    1.032551   -0.875946
     11          1           0       -1.876375    1.193115    0.878824
     12          1           0       -1.876595    1.192116   -0.880254
     13          1           0        1.876534   -1.192145   -0.880150
     14          1           0        1.876429   -1.193085    0.878928
     15          1           0       -3.261630   -0.788058   -0.814043
     16          1           0       -3.951706    0.438738   -0.000903
     17          1           0       -3.262160   -0.785769    0.816126
     18          1           0        3.951705   -0.438744    0.000536
     19          1           0        3.261589    0.786983    0.815255
     20          1           0        3.262207    0.786839   -0.814916
 ---------------------------------------------------------------------

 SCF Done:  E(RHF) =  -267.978569193     A.U. after    9 cycles

 The electronic state is 1-A.
 Alpha  occ. eigenvalues --  -16.00181 -16.00181 -11.59750 -11.59750 -11.54542
 Alpha  occ. eigenvalues --  -11.54485  -1.62460  -1.62389  -1.39790  -1.31153
 Alpha  occ. eigenvalues --   -1.20669  -1.14429  -1.08638  -1.08420  -1.07483
 Alpha  occ. eigenvalues --   -1.05643  -0.97712  -0.96316  -0.96049  -0.90402
 Alpha  occ. eigenvalues --   -0.86855  -0.83813  -0.82348  -0.80989  -0.79574
 Alpha virt. eigenvalues --   -0.12324  -0.11832  -0.06622  -0.05525  -0.04632
 Alpha virt. eigenvalues --   -0.03755  -0.03413  -0.02005   0.00334   0.00358
 Alpha virt. eigenvalues --    0.01585   0.03368   0.05033   0.05404   0.05529

 Mulliken atomic charges:
              1
     1  N   -0.855683
     2  N   -0.855683
     3  C   -0.367356
     4  C   -0.367355
     5  C   -0.211127
     6  C   -0.211127
     7  H    0.225327
     8  H    0.225329
     9  H    0.225324
    10  H    0.225333
    11  H    0.273171
    12  H    0.273183
    13  H    0.273180
    14  H    0.273174
    15  H    0.474578
    16  H    0.487986
    17  H    0.474591
    18  H    0.487986
    19  H    0.474578
    20  H    0.474590
 Sum of Mulliken atomic charges =   2.00000

 Dipole moment (field-independent basis, Debye):
    X=              0.0000    Y=              0.0000    Z=              0.0012  Tot=              0.0012
 Quadrupole moment (field-independent basis, Debye-Ang):
   XX=             56.6917   YY=            -30.5231   ZZ=            -31.2304
   XY=              4.0597   XZ=             -0.0007   YZ=             -0.0002

 Normal termination of Gaussian 09 at Thu Mar 16 16:55:02 2023.
