 Gaussian 09, Revision A.01,
 Gaussian 09:  EM64L-G09RevA.01  8-May-2009

 ----------------------------------------------------------------------
 #P HF/6-31G* POP(MK) IOP(6/33=2) scf=direct Test geom=allcheck guess=r
 ead
 ----------------------------------------------------------------------

 Optimizacion de estructura de espermina
 ---------------------------------------
 Redundant internal coordinates taken from checkpoint file:
 spm_cargas.chk
 Charge =  4 Multiplicity = 1

                         Standard orientation:
 ---------------------------------------------------------------------
 Center     Atomic      Atomic             Coordinates (Angstroms)
 Number     Number       Type             X           Y           Z
 ---------------------------------------------------------------------
      1          7           0        8.225062   -0.297773   -0.000002
      2          6           0        6.956256    0.515156   -0.000001
      3          6           0        5.704855   -0.378279    0.000000
      4          6           0        4.439042    0.496156    0.000001
      5          7           0        3.176248   -0.337993    0.000001
      6          6           0        1.894573    0.476244    0.000001
      7          6           0        0.648171   -0.421804    0.000001
      8          6           0       -0.648171    0.421804    0.000000
      9          6           0       -1.894573   -0.476244    0.000000
     10          7           0       -3.176248    0.337993    0.000000
     11          6           0       -4.439042   -0.496156    0.000000
     12          6           0       -5.704855    0.378279    0.000000
     13          6           0       -6.956256   -0.515156    0.000000
     14          7           0       -8.225062    0.297773   -0.000001
     15          1           0        9.035212    0.313459   -0.000002
     16          1           0        8.314760   -0.890028   -0.816562
     17          1           0        8.314762   -0.890028    0.816558
     18          1           0        7.002817    1.143465   -0.878970
     19          1           0        7.002818    1.143465    0.878969
     20          1           0        5.711836   -1.018254    0.878526
     21          1           0        5.711835   -1.018254   -0.878525
     22          1           0        4.389864    1.124063   -0.879446
     23          1           0        4.389865    1.124062    0.879448
     24          1           0        3.179485   -0.948505    0.806096
     25          1           0        3.179485   -0.948505   -0.806094
     26          1           0        1.935854    1.104125   -0.879713
     27          1           0        1.935854    1.104125    0.879715
     28          1           0        0.661506   -1.064530    0.876233
     29          1           0        0.661506   -1.064530   -0.876232
     30          1           0       -0.661506    1.064530   -0.876232
     31          1           0       -0.661506    1.064530    0.876233
     32          1           0       -1.935854   -1.104125    0.879715
     33          1           0       -1.935854   -1.104126   -0.879714
     34          1           0       -3.179485    0.948505   -0.806095
     35          1           0       -3.179485    0.948505    0.806095
     36          1           0       -4.389865   -1.124062    0.879448
     37          1           0       -4.389865   -1.124063   -0.879447
     38          1           0       -5.711835    1.018254   -0.878526
     39          1           0       -5.711835    1.018254    0.878526
     40          1           0       -7.002818   -1.143465    0.878969
     41          1           0       -7.002817   -1.143465   -0.878970
     42          1           0       -8.314762    0.890029    0.816558
     43          1           0       -9.035212   -0.313459   -0.000002
     44          1           0       -8.314761    0.890028   -0.816561
 ---------------------------------------------------------------------

 SCF Done:  E(RHF) =  -612.631078768     A.U. after    9 cycles

 The electronic state is 1-A.
 Alpha  occ. eigenvalues --  -16.12902 -16.12902 -16.10674 -16.10674 -11.72511
 Alpha  occ. eigenvalues --  -11.72511 -11.71952 -11.71952 -11.71487 -11.71487
 Alpha  occ. eigenvalues --  -11.67870 -11.67870 -11.66782 -11.66727  -1.75616
 Alpha  occ. eigenvalues --   -1.75564  -1.72915  -1.72915  -1.52931  -1.51057
 Alpha  occ. eigenvalues --   -1.49362  -1.43242  -1.37966  -1.37150  -1.33125
 Alpha  occ. eigenvalues --   -1.29366  -1.28328  -1.25158  -1.22650  -1.22519
 Alpha  occ. eigenvalues --   -1.18999  -1.18995  -1.17310  -1.17256  -1.11810
 Alpha  occ. eigenvalues --   -1.11481  -1.10297  -1.09230  -1.08581  -1.07737
 Alpha  occ. eigenvalues --   -1.06827  -1.06042  -1.05773  -1.02603  -0.99375
 Alpha  occ. eigenvalues --   -0.99284  -0.98643  -0.98634  -0.96664  -0.96097
 Alpha  occ. eigenvalues --   -0.95514  -0.95501  -0.93584  -0.93505  -0.93170
 Alpha  occ. eigenvalues --   -0.92391  -0.91673
 Alpha virt. eigenvalues --   -0.24554  -0.24273  -0.22293  -0.22288  -0.19359
 Alpha virt. eigenvalues --   -0.18883  -0.18542  -0.18459  -0.17786  -0.17176
 Alpha virt. eigenvalues --   -0.16215  -0.14925  -0.14805  -0.14529  -0.13827

 Mulliken atomic charges:
              1
     1  N   -0.854818
     2  C   -0.215799
     3  C   -0.388992
     4  C   -0.187118
     5  N   -0.788933
     6  C   -0.181221
     7  C   -0.373197
     8  C   -0.373197
     9  C   -0.181221
    10  N   -0.788933
    11  C   -0.187118
    12  C   -0.388992
    13  C   -0.215799
    14  N   -0.854818
    15  H    0.501224
    16  H    0.482315
    17  H    0.482315
    18  H    0.286531
    19  H    0.286531
    20  H    0.239878
    21  H    0.239878
    22  H    0.275161
    23  H    0.275161
    24  H    0.464441
    25  H    0.464441
    26  H    0.268046
    27  H    0.268046
    28  H    0.228055
    29  H    0.228055
    30  H    0.228055
    31  H    0.228055
    32  H    0.268046
    33  H    0.268046
    34  H    0.464441
    35  H    0.464441
    36  H    0.275161
    37  H    0.275161
    38  H    0.239878
    39  H    0.239878
    40  H    0.286531
    41  H    0.286531
    42  H    0.482315
    43  H    0.501224
    44  H    0.482315
 Sum of Mulliken atomic charges =   4.00000

 Dipole moment (field-independent basis, Debye):
    X=              0.0000    Y=              0.0000    Z=              0.0000  Tot=              0.0000
 Quadrupole moment (field-independent basis, Debye-Ang):
   XX=            668.2782   YY=            -69.4860   ZZ=            -72.1947
   XY=            -19.3300   XZ=              0.0000   YZ=              0.0000

 Normal termination of Gaussian 09 at Fri Mar 17 16:26:05 2023.
